<?xml version="1.0"?>
<VTKFile type="UnstructuredGrid"  version="0.1"  >
<UnstructuredGrid>
<Piece  NumberOfPoints="431" NumberOfCells="800">
<Points>
<DataArray  type="Float64"  NumberOfComponents="3"  format="ascii">1 0 0  1.200474893450909 0 0  1.493627090176008 0 0  1.836214362323139 0 0  2.215452468691798 0 0  2.624504792712471 0 0  3.059001281065828 0 0  3.515865637013791 0 0  3.992795033032388 0 0  4.487990180310147 0 0  5 0 0  0.996917333733128 0.07845909572784494 0  1.196774229992641 0.09418817458413932 0  1.489022736329836 0.1171886308498219 0  1.830553926249659 0.1440677184303549 0  2.208622968100704 0.1738223973215802 0  2.616414320320732 0.2059162727696156 0  3.049571401006368 0.2400064743427441 0  3.505027396615714 0.2758516385807056 0  3.980486578473525 0.313271087718352 0  4.474155204375252 0.3521236511825819 0  4.984586668665639 0.3922954786392247 0  0.9876883405951378 0.1564344650402309 0  1.185695055438653 0.1877956477512211 0  1.475238062163885 0.2336547548212804 0  1.8136075164999 0.2872472114692089 0  2.188176572469604 0.3465731217618603 0  2.592192783598166 0.4105630032434974 0  3.021339899174308 0.4785332289609137 0  3.472579496777619 0.5500025600795829 0  3.943637100512268 0.6246107550077127 0  4.432735573797802 0.7020763429626271 0  4.938441702975689 0.7821723252011543 0  0.9723699203976766 0.2334453638559054 0  1.16730567658427 0.2802452983015267 0  1.452358054778258 0.3486803195311753 0  1.785479613325221 0.4286557299299644 0  2.15423934062668 0.5171871076592207 0  2.551989516373146 0.6126784762763303 0  2.974480832166369 0.7141096670940928 0  3.418721989592027 0.8207625329011591 0  3.882473788433942 0.9320994892882977 0  4.363986654373732 1.047700500624233 0  4.861849601988383 1.167226819279527 0  0.9510565162951535 0.3090169943749474 0  1.141719470065217 0.370967143396785 0  1.420523777026861 0.4615561541231884 0  1.746343634602171 0.567421443273207 0  2.107020506891519 0.6846124630556968 0  2.496052385157057 0.811016582766652 0  2.909283101712878 0.9452833816640758 0  3.343786924500177 1.086462231776162 0  3.797373734396376 1.233841520262887 0  4.268332306052627 1.38686523630372 0  4.755282581475767 1.545084971874737 0  0.9238795325112867 0.3826834323650898 0  1.109094183352962 0.4594018526939093 0  1.379931497818004 0.571586341542036 0  1.696440866653612 0.7026888147318934 0  2.046811191075955 0.847816954960689 0  2.424726260964829 1.004354502333837 0  2.826148673502524 1.170629109847478 0  3.248236301096799 1.34546352970691 0  3.688861608531351 1.527976507971117 0  4.146362269700184 1.717479486621905 0  4.619397662556434 1.913417161825449 0  0.8910065241883679 0.4539904997395467 0  1.069630962189096 0.5450041968025573 0  1.330831482051311 0.6780925090935307 0  1.6360789766383 0.833623875980015 0  1.973982603633618 1.005794373410602 0  2.338450893070452 1.19150024241237 0  2.725590098930228 1.388757520294989 0  3.13265922074898 1.596169597564991 0  3.557606424178768 1.812691012403954 0  3.998828531149671 2.037504904785182 0  4.455032620941839 2.269952498697734 0  0.8526401643540922 0.5224985647159488 0  1.023573110454944 0.6272464088056314 0  1.273526447651396 0.780418010837823 0  1.565630115680546 0.9594193688246512 0  1.888983757024054 1.15757073508787 0  2.237758197806464 1.371299987282395 0  2.608227355047346 1.598323778821144 0  2.997768254590344 1.837034749073831 0  3.404417413196938 2.086229673964392 0  3.826640684959196 2.344968427671324 0  4.263200821770461 2.612492823579744 0  0.8090169943749475 0.5877852522924731 0  0.9712045901222396 0.7056214381178223 0  1.208369699211192 0.8779319760299772 0  1.485528624434777 1.079299722221169 0  1.792338697401596 1.302210288251991 0  2.123268979122888 1.542645211727305 0  2.47478402219699 1.798035839754276 0  2.844395050283057 2.066573970478588 0  3.230239036779082 2.346906035843076 0  3.630860326458794 2.637974440419742 0  4.045084971874737 2.938926261462366 0  0.7604059656000309 0.6494480483301837 0  0.9128482705331326 0.7796460766210779 0  1.135762949751651 0.9700331986478994 0  1.396268355230971 1.192525833926615 0  1.684643273696559 1.438821281960176 0  1.995689101124435 1.704479515460327 0  2.326082822900593 1.986662411827733 0  2.67348520463344 2.283372076149765 0  3.036145162536001 2.593112941585336 0  3.412694506662195 2.914716463527454 0  3.802029828000155 3.247240241650919 0  0.7071067811865476 0.7071067811865475 0  0.8488639378033358 0.8488639378033357 0  1.056153844027386 1.056153844027386 0  1.298399627310824 1.298399627310824 0  1.566561464008448 1.566561464008448 0  1.855805136183582 1.855805136183582 0  2.163040549499983 2.163040549499982 0  2.486092433673213 2.486092433673212 0  2.823332443745167 2.823332443745167 0  3.173488290395941 3.173488290395941 0  3.535533905932738 3.535533905932737 0  0.6494480483301835 0.760405965600031 0  0.7796460766210778 0.9128482705331328 0  0.9700331986478992 1.135762949751652 0  1.192525833926615 1.396268355230972 0  1.438821281960175 1.684643273696559 0  1.704479515460327 1.995689101124436 0  1.986662411827733 2.326082822900593 0  2.283372076149764 2.67348520463344 0  2.593112941585336 3.036145162536001 0  2.914716463527454 3.412694506662195 0  3.247240241650918 3.802029828000155 0  0.5877852522924731 0.8090169943749475 0  0.7056214381178223 0.9712045901222396 0  0.8779319760299772 1.208369699211192 0  1.079299722221169 1.485528624434777 0  1.302210288251991 1.792338697401596 0  1.542645211727305 2.123268979122888 0  1.798035839754276 2.47478402219699 0  2.066573970478588 2.844395050283057 0  2.346906035843076 3.230239036779082 0  2.637974440419742 3.630860326458794 0  2.938926261462366 4.045084971874737 0  0.5224985647159489 0.8526401643540922 0  0.6272464088056315 1.023573110454944 0  0.7804180108378231 1.273526447651396 0  0.9594193688246514 1.565630115680546 0  1.15757073508787 1.888983757024054 0  1.371299987282395 2.237758197806464 0  1.598323778821144 2.608227355047346 0  1.837034749073831 2.997768254590344 0  2.086229673964393 3.404417413196938 0  2.344968427671325 3.826640684959196 0  2.612492823579744 4.263200821770461 0  0.4539904997395468 0.8910065241883678 0  0.5450041968025573 1.069630962189095 0  0.6780925090935308 1.33083148205131 0  0.8336238759800151 1.6360789766383 0  1.005794373410602 1.973982603633618 0  1.19150024241237 2.338450893070451 0  1.388757520294989 2.725590098930228 0  1.596169597564991 3.13265922074898 0  1.812691012403954 3.557606424178767 0  2.037504904785183 3.99882853114967 0  2.269952498697734 4.455032620941839 0  0.3826834323650898 0.9238795325112867 0  0.4594018526939093 1.109094183352962 0  0.5715863415420361 1.379931497818004 0  0.7026888147318935 1.696440866653612 0  0.8478169549606891 2.046811191075955 0  1.004354502333837 2.424726260964829 0  1.170629109847478 2.826148673502524 0  1.345463529706911 3.248236301096799 0  1.527976507971117 3.688861608531351 0  1.717479486621906 4.146362269700184 0  1.913417161825449 4.619397662556434 0  0.3090169943749475 0.9510565162951535 0  0.3709671433967852 1.141719470065217 0  0.4615561541231885 1.420523777026861 0  0.5674214432732071 1.746343634602171 0  0.6846124630556969 2.107020506891519 0  0.8110165827666522 2.496052385157057 0  0.945283381664076 2.909283101712878 0  1.086462231776162 3.343786924500177 0  1.233841520262888 3.797373734396376 0  1.38686523630372 4.268332306052627 0  1.545084971874737 4.755282581475767 0  0.2334453638559055 0.9723699203976766 0  0.2802452983015268 1.16730567658427 0  0.3486803195311755 1.452358054778258 0  0.4286557299299646 1.785479613325221 0  0.5171871076592208 2.15423934062668 0  0.6126784762763305 2.551989516373146 0  0.7141096670940932 2.974480832166369 0  0.8207625329011594 3.418721989592027 0  0.932099489288298 3.882473788433942 0  1.047700500624233 4.363986654373732 0  1.167226819279527 4.861849601988383 0  0.1564344650402309 0.9876883405951378 0  0.1877956477512212 1.185695055438653 0  0.2336547548212805 1.475238062163885 0  0.287247211469209 1.8136075164999 0  0.3465731217618604 2.188176572469604 0  0.4105630032434975 2.592192783598166 0  0.4785332289609138 3.021339899174308 0  0.5500025600795831 3.472579496777619 0  0.6246107550077129 3.943637100512268 0  0.7020763429626274 4.432735573797802 0  0.7821723252011547 4.938441702975689 0  0.078459095727845 0.996917333733128 0  0.09418817458413939 1.196774229992641 0  0.117188630849822 1.489022736329836 0  0.144067718430355 1.830553926249659 0  0.1738223973215803 2.208622968100704 0  0.2059162727696157 2.616414320320732 0  0.2400064743427443 3.049571401006368 0  0.2758516385807058 3.505027396615714 0  0.3132710877183522 3.980486578473525 0  0.3521236511825822 4.474155204375252 0  0.392295478639225 4.984586668665639 0  6.123233995736766e-17 1 0  7.350788678607077e-17 1.200474893450909 0  9.145828175519113e-17 1.493627090176008 0  1.124357020683715e-16 1.836214362323139 0  1.356573387223256e-16 2.215452468691798 0  1.607045696871107e-16 2.624504792712471 0  1.873098063722459e-16 3.059001281065828 0  2.152846799300555e-16 3.515865637013791 0  2.444881828427282e-16 3.992795033032388 0  2.748101404460787e-16 4.487990180310147 0  3.061616997868383e-16 5 0  1.080584372138792 0.04245627561214865 0  1.338575770180987 0.0525927852482848 0  1.658474345237527 0.0651616344938573 0  2.020200243409798 0.0793738837404912 0  2.414701107798577 0.09487386491694449 0  2.836598664596213 0.111450265069798 0  3.282263148048203 0.1289604703141445 0  3.749051650872889 0.1473006405400764 0  4.234939402842053 0.1663912223086608 0  4.738317357385958 0.1861689960079927 0  1.073922210153789 0.1271070697791528 0  1.330323005436209 0.1574541037349229 0  1.648249299400455 0.195083160336475 0  2.007745037124426 0.2376322848337187 0  2.399813672499398 0.284036665824859 0  2.819110090564203 0.3336636672642649 0  3.262026904277233 0.3860863267592389 0  3.725937500759076 0.440993764188866 0  4.208829593163276 0.4981478097097535 0  4.709104055227262 0.5573591942561156 0  1.060638960627815 0.2109742065935785 0  1.313868356985627 0.2613446653132
[...]
<CellData  Vectors="f_108"> 
<DataArray  type="Float64"  Name="f_108"  NumberOfComponents="3" format="ascii">-8.4919657726219966e-01  -3.3365024391178666e-02 0.0000000000000000e+00  -8.4919657726219955e-01  -3.3365024391178756e-02 0.0000000000000000e+00  -8.4919657726219999e-01  -3.3365024391178708e-02 0.0000000000000000e+00  -8.4919657726219977e-01  -3.3365024391178881e-02 0.0000000000000000e+00  -6.9360245425983480e-01  -2.7251714648650414e-02 0.0000000000000000e+00  -6.9360245425983469e-01  -2.7251714648651299e-02 0.0000000000000000e+00  -6.9360245425983469e-01  -2.7251714648652694e-02 0.0000000000000000e+00  -6.9360245425983502e-01  -2.7251714648653114e-02 0.0000000000000000e+00  -5.6117859499510359e-01  -2.2048767047772373e-02 0.0000000000000000e+00  -5.6117859499510292e-01  -2.2048767047772311e-02 0.0000000000000000e+00  -5.6117859499510314e-01  -2.2048767047770947e-02 0.0000000000000000e+00  -5.6117859499510292e-01  -2.2048767047772398e-02 0.0000000000000000e+00  -4.6120172901823281e-01  -1.8120665285249055e-02 0.0000000000000000e+00  -4.6120172901823342e-01  -1.8120665285247969e-02 0.0000000000000000e+00  -4.6120172901823303e-01  -1.8120665285248912e-02 0.0000000000000000e+00  -4.6120172901823281e-01  -1.8120665285248132e-02 0.0000000000000000e+00  -3.8608517533225689e-01  -1.5169327852881390e-02 0.0000000000000000e+00  -3.8608517533225750e-01  -1.5169327852879002e-02 0.0000000000000000e+00  -3.8608517533225573e-01  -1.5169327852879385e-02 0.0000000000000000e+00  -3.8608517533225695e-01  -1.5169327852877102e-02 0.0000000000000000e+00  -3.2878222062454099e-01  -1.2917888630558058e-02 0.0000000000000000e+00  -3.2878222062454071e-01  -1.2917888630556339e-02 0.0000000000000000e+00  -3.2878222062454099e-01  -1.2917888630557220e-02 0.0000000000000000e+00  -3.2878222062454099e-01  -1.2917888630556911e-02 0.0000000000000000e+00  -2.8420890812732696e-01  -1.1166598412853094e-02 0.0000000000000000e+00  -2.8420890812732752e-01  -1.1166598412855737e-02 0.0000000000000000e+00  -2.8420890812732841e-01  -1.1166598412856287e-02 0.0000000000000000e+00  -2.8420890812732857e-01  -1.1166598412858754e-02 0.0000000000000000e+00  -2.4886405578618420e-01  -9.7778953822019697e-03 0.0000000000000000e+00  -2.4886405578618354e-01  -9.7778953822033072e-03 0.0000000000000000e+00  -2.4886405578618420e-01  -9.7778953822014129e-03 0.0000000000000000e+00  -2.4886405578618379e-01  -9.7778953822019645e-03 0.0000000000000000e+00  -2.2033758677557638e-01  -8.6570873622234448e-03 0.0000000000000000e+00  -2.2033758677557666e-01  -8.6570873622243086e-03 0.0000000000000000e+00  -2.2033758677557691e-01  -8.6570873622255733e-03 0.0000000000000000e+00  -2.2033758677557672e-01  -8.6570873622247926e-03 0.0000000000000000e+00  -1.9694747911393845e-01  -7.7380875292786221e-03 0.0000000000000000e+00  -1.9694747911393726e-01  -7.7380875292788441e-03 0.0000000000000000e+00  -1.9694747911393878e-01  -7.7380875292776003e-03 0.0000000000000000e+00  -1.9694747911393784e-01  -7.7380875292774685e-03 0.0000000000000000e+00  -8.4396099797686086e-01  -9.9889366703167698e-02 0.0000000000000000e+00  -8.4396099797686153e-01  -9.9889366703167226e-02 0.0000000000000000e+00  -8.4396099797686153e-01  -9.9889366703168558e-02 0.0000000000000000e+00  -8.4396099797686153e-01  -9.9889366703167851e-02 0.0000000000000000e+00  -6.8932616448310235e-01  -8.1587128063031381e-02 0.0000000000000000e+00  -6.8932616448310269e-01  -8.1587128063030909e-02 0.0000000000000000e+00  -6.8932616448310235e-01  -8.1587128063030423e-02 0.0000000000000000e+00  -6.8932616448310235e-01  -8.1587128063030548e-02 0.0000000000000000e+00  -5.5771874234613883e-01  -6.6010363162505692e-02 0.0000000000000000e+00  -5.5771874234613850e-01  -6.6010363162505498e-02 0.0000000000000000e+00  -5.5771874234613827e-01  -6.6010363162504235e-02 0.0000000000000000e+00  -5.5771874234613827e-01  -6.6010363162505692e-02 0.0000000000000000e+00  -4.5835826699369742e-01  -5.4250275928529629e-02 0.0000000000000000e+00  -4.5835826699369864e-01  -5.4250275928529046e-02 0.0000000000000000e+00  -4.5835826699369731e-01  -5.4250275928529414e-02 0.0000000000000000e+00  -4.5835826699369808e-01  -5.4250275928527804e-02 0.0000000000000000e+00  -3.8370483183998416e-01  -4.5414459608113827e-02 0.0000000000000000e+00  -3.8370483183998599e-01  -4.5414459608111121e-02 0.0000000000000000e+00  -3.8370483183998372e-01  -4.5414459608111683e-02 0.0000000000000000e+00  -3.8370483183998511e-01  -4.5414459608109546e-02 0.0000000000000000e+00  -3.2675516890320794e-01  -3.8674022812633900e-02 0.0000000000000000e+00  -3.2675516890320838e-01  -3.8674022812631645e-02 0.0000000000000000e+00  -3.2675516890320722e-01  -3.8674022812632450e-02 0.0000000000000000e+00  -3.2675516890320844e-01  -3.8674022812630479e-02 0.0000000000000000e+00  -2.8245666569967076e-01  -3.3430949446081167e-02 0.0000000000000000e+00  -2.8245666569966926e-01  -3.3430949446082804e-02 0.0000000000000000e+00  -2.8245666569967237e-01  -3.3430949446082846e-02 0.0000000000000000e+00  -2.8245666569967032e-01  -3.3430949446086808e-02 0.0000000000000000e+00  -2.4732972612656531e-01  -2.9273402170095473e-02 0.0000000000000000e+00  -2.4732972612656487e-01  -2.9273402170094220e-02 0.0000000000000000e+00  -2.4732972612656604e-01  -2.9273402170097090e-02 0.0000000000000000e+00  -2.4732972612656537e-01  -2.9273402170097093e-02 0.0000000000000000e+00  -2.1897913228342256e-01  -2.5917888264311875e-02 0.0000000000000000e+00  -2.1897913228342195e-01  -2.5917888264311819e-02 0.0000000000000000e+00  -2.1897913228342156e-01  -2.5917888264311285e-02 0.0000000000000000e+00  -2.1897913228342197e-01  -2.5917888264309196e-02 0.0000000000000000e+00  -1.9573323241351873e-01  -2.3166554705042367e-02 0.0000000000000000e+00  -1.9573323241351875e-01  -2.3166554705040317e-02 0.0000000000000000e+00  -1.9573323241351653e-01  -2.3166554705038450e-02 0.0000000000000000e+00  -1.9573323241351775e-01  -2.3166554705036504e-02 0.0000000000000000e+00  -8.3352211849348490e-01  -1.6579785785284751e-01 0.0000000000000000e+00  -8.3352211849348468e-01  -1.6579785785284787e-01 0.0000000000000000e+00  -8.3352211849348479e-01  -1.6579785785284715e-01 0.0000000000000000e+00  -8.3352211849348445e-01  -1.6579785785284715e-01 0.0000000000000000e+00  -6.8079994967812041e-01  -1.3541952970242846e-01 0.0000000000000000e+00  -6.8079994967812141e-01  -1.3541952970242718e-01 0.0000000000000000e+00  -6.8079994967812096e-01  -1.3541952970243021e-01 0.0000000000000000e+00  -6.8079994967812130e-01  -1.3541952970242935e-01 0.0000000000000000e+00  -5.5082036819030922e-01  -1.0956498343766692e-01 0.0000000000000000e+00  -5.5082036819030689e-01  -1.0956498343767153e-01 0.0000000000000000e+00  -5.5082036819030900e-01  -1.0956498343766775e-01 0.0000000000000000e+00  -5.5082036819030644e-01  -1.0956498343767079e-01 0.0000000000000000e+00  -4.5268887383355610e-01  -9.0045415580665325e-02 0.0000000000000000e+00  -4.5268887383355666e-01  -9.0045415580662799e-02 0.0000000000000000e+00  -4.5268887383355533e-01  -9.0045415580662785e-02 0.0000000000000000e+00  -4.5268887383355622e-01  -9.0045415580663507e-02 0.0000000000000000e+00  -3.7895882046461482e-01  -7.5379596118020531e-02 0.0000000000000000e+00  -3.7895882046461565e-01  -7.5379596118019546e-02 0.0000000000000000e+00  -3.7895882046461493e-01  -7.5379596118020406e-02 0.0000000000000000e+00  -3.7895882046461538e-01  -7.5379596118018935e-02 0.0000000000000000e+00  -3.2271356290846753e-01  -6.4191718783648918e-02 0.0000000000000000e+00  -3.2271356290846737e-01  -6.4191718783648030e-02 0.0000000000000000e+00  -3.2271356290846792e-01  -6.4191718783650695e-02 0.0000000000000000e+00  -3.2271356290846842e-01  -6.4191718783652416e-02 0.0000000000000000e+00  -2.7896298400160152e-01  -5.5489187559056019e-02 0.0000000000000000e+00  -2.7896298400160191e-01  -5.5489187559055374e-02 0.0000000000000000e+00  -2.7896298400160174e-01  -5.5489187559054069e-02 0.0000000000000000e+00  -2.7896298400160102e-01  -5.5489187559055117e-02 0.0000000000000000e+00  -2.4427052645989741e-01  -4.8588428699216889e-02 0.0000000000000000e+00  -2.4427052645989852e-01  -4.8588428699217222e-02 0.0000000000000000e+00  -2.4427052645989694e-01  -4.8588428699214960e-02 0.0000000000000000e+00  -2.4427052645989769e-01  -4.8588428699213745e-02 0.0000000000000000e+00  -2.1627059862278897e-01  -4.3018896766682094e-02 0.0000000000000000e+00  -2.1627059862279144e-01  -4.3018896766677063e-02 0.0000000000000000e+00  -2.1627059862278739e-01  -4.3018896766675113e-02 0.0000000000000000e+00  -2.1627059862279033e-01  -4.3018896766671311e-02 0.0000000000000000e+00  -1.9331222524736352e-01  -3.8452192367384647e-02 0.0000000000000000e+00  -1.9331222524736480e-01  -3.8452192367383578e-02 0.0000000000000000e+00  -1.9331222524736297e-01  -3.8452192367383037e-02 0.0000000000000000e+00  -1.9331222524736322e-01  -3.8452192367382343e-02 0.0000000000000000e+00  -8.1794429797536516e-01  -2.3068415007548115e-01 0.0000000000000000e+00  -8.1794429797536516e-01  -2.3068415007548068e-01 0.0000000000000000e+00  -8.1794429797536494e-01  -2.3068415007548090e-01 0.0000000000000000e+00  -8.1794429797536505e-01  -2.3068415007548054e-01 0.0000000000000000e+00  -6.6807637679441800e-01  -1.8841702490964832e-01 0.0000000000000000e+00  -6.6807637679441922e-01  -1.8841702490964593e-01 0.0000000000000000e+00  -6.6807637679441800e-01  -1.8841702490964748e-01 0.0000000000000000e+00  -6.6807637679441889e-01  -1.8841702490964543e-01 0.0000000000000000e+00  -5.4052600329822498e-01  -1.5244409915588786e-01 0.0000000000000000e+00  -5.4052600329822442e-01  -1.5244409915588741e-01 0.0000000000000000e+00  -5.4052600329822487e-01  -1.5244409915588605e-01 0.0000000000000000e+00  -5.4052600329822476e-01  -1.5244409915588539e-01 0.0000000000000000e+00  -4.4422850323190466e-01  -1.2528539530260258e-01 0.0000000000000000e+00  -4.4422850323190344e-01  -1.2528539530260507e-01 0.0000000000000000e+00  -4.4422850323190438e-01  -1.2528539530260094e-01 0.0000000000000000e+00  -4.4422850323190316e-01  -1.2528539530260288e-01 0.0000000000000000e+00  -3.7187640194448557e-01  -1.0487999235160213e-01 0.0000000000000000e+00  -3.7187640194448807e-01  -1.0487999235159796e-01 0.0000000000000000e+00  -3.7187640194448596e-01  -1.0487999235160052e-01 0.0000000000000000e+00  -3.7187640194448779e-01  -1.0487999235159672e-01 0.0000000000000000e+00  -3.1668232048524775e-01  -8.9313651462451085e-02 0.0000000000000000e+00  -3.1668232048524847e-01  -8.9313651462450572e-02 0.0000000000000000e+00  -3.1668232048524791e-01  -8.9313651462451266e-02 0.0000000000000000e+00  -3.1668232048524769e-01  -8.9313651462451224e-02 0.0000000000000000e+00  -2.7374940274255777e-01  -7.7205316378695363e-02 0.0000000000000000e+00  -2.7374940274255877e-01  -7.7205316378695557e-02 0.0000000000000000e+00  -2.7374940274255771e-01  -7.7205316378695418e-02 0.0000000000000000e+00  -2.7374940274255860e-01  -7.7205316378693725e-02 0.0000000000000000e+00  -2.3970531776941223e-01  -6.7603891408110628e-02 0.0000000000000000e+00  -2.3970531776941137e-01  -6.7603891408111419e-02 0.0000000000000000e+00  -2.3970531776941054e-01  -6.7603891408109199e-02 0.0000000000000000e+00  -2.3970531776941079e-01  -6.7603891408110559e-02 0.0000000000000000e+00  -2.1222868480437587e-01  -5.9854679465237301e-02 0.0000000000000000e+00  -2.1222868480437618e-01  -5.9854679465237509e-02 0.0000000000000000e+00  -2.1222868480437632e-01  -5.9854679465237766e-02 0.0000000000000000e+00  -2.1222868480437673e-01  -5.9854679465237350e-02 0.0000000000000000e+00  -1.8969938392972188e-01  -5.3500759477130795e-02 0.0000000000000000e+00  -1.8969938392972119e-01  -5.3500759477130108e-02 0.0000000000000000e+00  -1.8969938392972177e-01  -5.3500759477130441e-02 0.0000000000000000e+00  -1.8969938392972091e-01  -5.3500759477128679e-02 0.0000000000000000e+00  -7.9732357886614791e-01  -2.9414819780263363e-01 0.0000000000000000e+00  -7.9732357886614702e-01  -2.9414819780263451e-01 0.0000000000000000e+00  -7.9732357886614780e-01  -2.9414819780263374e-01 0.0000000000000000e+00  -7.9732357886614702e-01  -2.9414819780263490e-01 0.0000000000000000e+00  -6.5123389088983907e-01  -2.4025286650327859e-01 0.0000000000000000e+00  -6.5123389088983996e-01  -2.4025286650327679e-01 0.0000000000000000e+00  -6.5123389088983918e-01  -2.4025286650327835e-01 0.0000000000000000e+00  -6.5123389088984018e-01  -2.4025286650327726e-01 0.0000000000000000e+00  -5.2689911585267346e-01  -1.9438334630999990e-01 0.0000000000000000e+00  -5.2689911585267390e-01  -1.9438334630999973e-01 0.0000000000000000e+00  -5.2689911585267302e-01  -1.9438334630999918e-01 0.0000000000000000e+00  -5.2689911585267335e-01  -1.9438334631000076e-01 0.0000000000000000e+00  -4.3302931618685897e-01  -1.5975294890088215e-01 0.0000000000000000e+00  -4.3302931618685780e-01  -1.5975294890088360e-01 0.0000000000000000e+00  -4.3302931618685914e-01  -1.5975294890088054e-01 0.0000000000000000e+00  -4.3302931618685780e-01  -1.5975294890088174e-01 0.0000000000000000e+00  -3.6250124174491766e-01  -1.3373376855619876e-01 0.0000000000000000e+00  -3.6250124174491793e-01  -1.3373376855619709e-01 0.0000000000000000e+00  -3.6250124174491738e-01  -1.3373376855619937e-01 0.0000000000000000e+00  -3.6250124174491866e-01  -1.3373376855619690e-01 0.0000000000000000e+00  -3.0869862624867717e-01  -1.1388493578018496e-01 0.0000000000000000e+00  -3.0869862624867711e-01  -1.1388493578018490e-01 0.0000000000000000e+00  -3.0869862624867761e-01  -1.1388493578018562e-01 0.0000000000000000e+00  -3.0869862624867661e-01  -1.1388493578018725e-01 0.0000000000000000e+00  -2.6684806538469280e-01  -9.8445448749489212e-02 0.0000000000000000e+00  -2.6684806538469213e-01  -9.8445448749491696e-02 0.0000000000000000e+00  -2.6684806538469319e-01  -9.8445448749489281e-02 0.0000000000000000e+00  -2.6684806538469186e-01  -9.8445448749491099e-02 0.0000000000000000e+00  -2.3366224608476857e-01  -8.6202553645901306e-02 0.0000000000000000e+00  -2.3366224608477060e-01  -8.6202553645900404e-02 0.0000000000000000e+00  -2.3366224608476946e-01  -8.6202553645904928e-02 0.0000000000000000e+00  -2.3366224608476993e-01  -8.6202553645904553e-02 0.0000000000000000e+00  -2.0687831057094438e-01  -7.6321438161198935e-02 0.0000000000000000e+00  -2.0687831057094339e-01  -7.6321438161200642e-02 0.0000000000000000e+00  -2.0687831057094358e-01  -7.6321438161197089e-02 0.0000000000000000e+00  -2.0687831057094277e-01  -7.6321438161198837e-02 0.0000000000000000e+00  -1.8491698282870650e-01  -6.8219476613895033e-02 0.0000000000000000e+00  -1.8491698282870675e-01  -6.8219476613893534e-02 0.0000000000000000e+00  -1.8491698282870633e-01  -6.8219476613892674e-02 0.0000000000000000e+00  -1.8491698282870558e-01  -6.8219476613891092e-02 0.0000000000000000e+00  -7.7178709475622498e-01  -3.5579872407613383e-01 0.0000000000000000e+00  -7.7178709475622453e-01  -3.5579872407613417e-01 0.0000000000000000e+00  -7.7178709475622498e-01  -3.5579872407613361e-01 0.0000000000000000e+00  -7.7178709475622442e-01  -3.5579872407613389e-01 0.0000000000000000e+00  -6.3037633149068051e-01  -2.9060746928273223e-01 0.0000000000000000e+00  -6.3037633149068040e-01  -2.9060746928273101e-01 0.0000000000000000e+00  -6.3037633149068006e-01  -2.9060746928273151e-01 0.0000000000000000e+00  -6.3037633149068095e-01  -2.9060746928273057e-01 0.0000000000000000e+00  -5.1002372014615471e-01  -2.3512415549508878e-01 0.0000000000000000e+00  -5.1002372014615549e-01  -2.3512415549508864e-01 0.0000000000000000e+00  -5.1002372014615527e-01  -2.3512415549508700e-01 0.0000000000000000e+00  -5.1002372014615582e-01  -2.3512415549508786e-01 0.0000000000000000e+00  -4.1916035941066360e-01  -1.9323557244593684e-01 0.0000000000000000e+00  -4.1916035941066282e-01  -1.9323557244593903e-01 0.0000000000000000e+00  -4.1916035941066293e-01  -1.9323557244594169e-01 0.0000000000000000e+00  -4.1916035941066215e-01  -1.9323557244594228e-01 0.0000000000000000e+00  -3.5089114084609491e-01  -1.6176303160665886e-01 0.0000000000000000e+00  -3.5089114084609518e-01  -1.6176303160665753e-01 0.0000000000000000e+00  -3.5089114084609468e-01  -1.6176303160665809e-01 0.0000000000000000e+00  -3.5089114084609496e-01  -1.6176303160665809e-01 0.0000000000000000e+00  -2.9881170232857390e-01  -1.3775408159824795e-01 0.0000000000000000e+00  -2.9881170232857274e-01  -1.3775408159825109e-01 0.0000000000000000e+00  -2.9881170232857313e-01  -1.3775408159824648e-01 0.0000000000000000e+00  -2.9881170232857157e-01  -1.3775408159824787e-01 0.0000000000000000e+00  -2.5830152096774223e-01  -1.1907863219231220e-01 0.0000000000000000e+00  -2.5830152096774678e-01  -1.1907863219230862e-01 0.0000000000000000e+00  -2.5830152096774317e-01  -1.1907863219231356e-01 0.0000000000000000e+00  -2.5830152096774717e-01  -1.1907863219231014e-01 0.0000000000000000e+00  -2.2617856895243482e-01  -1.0426974847520817e-01 0.0000000000000000e+00  -2.2617856895243246e-01  -1.0426974847520933e-01 0.0000000000000000e+00  -2.2617856895243493e-01  -1.0426974847520740e-01 0.0000000000000000e+00  -2.2617856895243288e-01  -1.0426974847520856e-01 0.0000000000000000e+00  -2.0025246275882180e-01  -9.2317649811439265e-02 0.0000000000000000e+00  -2.0025246275882330e-01  -9.2317649811439292e-02 0.0000000000000000e+00  -2.0025246275882103e-01  -9.2317649811439570e-02 0.0000000000000000e+00  -2.0025246275882286e-01  -9.2317649811438071e-02 0.0000000000000000e+00  -1.7899450703741598e-01  -8.2517597992051633e-02 0.0000000000000000e+00  -1.7899450703741249e-01  -8.2517597992053993e-02 0.0000000000000000e+00  -1.7899450703741565e-01  -8.2517597992053673e-02 0.0000000000000000e+00  -1.7899450703741202e-01  -8.2517597992055713e-02 0.0000000000000000e+00  -7.4149228656187749e-01  -4.1525563290062267e-01 0.0000000000000000e+00  -7.4149228656187693e-01  -4.1525563290062323e-01 0.0000000000000000e+00  -7.4149228656187782e-01  -4.1525563290062184e-01 0.0000000000000000e+00  -7.4149228656187682e-01  -4.1525563290062273e-01 0.0000000000000000e+00  -6.0563229238647898e-01  -3.3917038037726760e-01 0.0000000000000000e+00  -6.0563229238647909e-01  -3.3917038037726716e-01 0.0000000000000000e+00  -6.0563229238647920e-01  -3.3917038037726582e-01 0.0000000000000000e+00  -6.0563229238647942e-01  -3.3917038037726660e-01 0.0000000000000000e+00  -4.9000385860483731e-01  -2.7441534607483564e-01 0.0000000000000000e+00  -4.9000385860483969e-01  -2.7441534607483498e-01 0.0000000000000000e+00  -4.9000385860483764e-01  -2.7441534607483364e-01 0.0000000000000000e+00  -4.9000385860484047e-01  -2.7441534607483198e-01 0.0000000000000000e+00  -4.0270713963373644e-01  -2.2552683442952146e-01 0.0000000000000000e+00  -4.0270713963373955e-01  -2.2552683442951960e-01 0.0000000000000000e+00  -4.0270713963373583e-01  -2.2552683442951943e-01 0.0000000000000000e+00  -4.0270713963374005e-01  -2.2552683442951746e-01 0.0000000000000000e+00  -3.3711767938081511e-01  -1.8879497177558924e-01 0.0000000000000000e+00  -3.3711767938081244e-01  -1.8879497177559093e-01 0.0000000000000000e+00  -3.3711767938081427e-01  -1.8879497177559082e-01 0.0000000000000000e+00  -3.3711767938081189e-01  -1.8879497177559332e-01 0.0000000000000000e+00  -2.8708250489863885e-01  -1.6077392769537877e-01 0.0000000000000000e+00  -2.8708250489863985e-01  -1.6077392769537771e-01 0.0000000000000000e+00  -2.8708250489863923e-01  -1.6077392769538235e-01 0.0000000000000000e+00  -2.8708250489864057e-01  -1.6077392769538074e-01 0.0000000000000000e+00  -2.4816246178005918e-01  -1.3897765627000588e-01 0.0000000000000000e+00  -2.4816246178005871e-01  -1.3897765627000566e-01 0.0000000000000000e+00  -2.4816246178005727e-01  -1.3897765627000203e-01 0.0000000000000000e+00  -2.4816246178005907e-01  -1.3897765627000111e-01 0.0000000000000000e+00  -2.1730042573050065e-01  -1.2169408563195322e-01 0.0000000000000000e+00  -2.1730042573050104e-01  -1.2169408563195330e-01 0.0000000000000000e+00  -2.1730042573050048e-01  -1.2169408563195253e-01 0.0000000000000000e+00  -2.1730042573050065e-01  -1.2169408563195164e-01 0.0000000000000000e+00  -1.9239199192309320e-01  -1.0774469